 Q-Chem 6.1, Q-Chem, Inc., Pleasanton, CA (2023)
 Q-Chem 6.1.1 for Intel X86 EM64T Linux

User input:
--------------------------------------------------------------
$molecule
0 1
O   -3.3766163    1.6585271    0.0000000
O   -2.4450999    2.5882674    0.0000000
H   -4.2298630    2.1614695    0.0000000
H   -1.5918432    2.0853458    0.0000000
$end

$rem
BASIS  =  6-31G
GUI  =  2
JOB_TYPE  =  Optimization
METHOD  =  CAm-B3LYP
SCF_CONVERGENCE  =  8
$end

--------------------------------------------------------------

   11    -151.4132511973      2.63e-10  Convergence criterion met
 Total energy =  -151.41325120
    9    -151.4341493697      8.52e-09  Convergence criterion met
 Total energy =  -151.43414937
    9    -151.4366243631      4.82e-09  Convergence criterion met
 Total energy =  -151.43662436
    9    -151.4367868728      6.21e-10  Convergence criterion met
 Total energy =  -151.43678687
    9    -151.4368003644      3.10e-10  Convergence criterion met
 Total energy =  -151.43680036
    6    -151.4368006879      9.29e-09  Convergence criterion met
 Total energy =  -151.43680069

             Orbital Energies (a.u.) and Symmetries
 --------------------------------------------------------------

 Alpha MOs, Restricted
 -- Occupied --
-19.277 -19.277  -1.189  -0.991  -0.571  -0.565  -0.460  -0.423
  1 A'    2 A'    3 A'    4 A'    5 A'    6 A'    1 A"    7 A'
 -0.327
  2 A"

 Beta MOs, Restricted
 -- Occupied --
-19.277 -19.277  -1.189  -0.991  -0.571  -0.565  -0.460  -0.423
  1 A'    2 A'    3 A'    4 A'    5 A'    6 A'    1 A"    7 A'
 -0.327
  2 A"

          Ground-State Mulliken Net Atomic Charges

     Atom                 Charge (a.u.)
  ----------------------------------------
      1 O                    -0.402797
      2 O                    -0.402797
      3 H                     0.402797
      4 H                     0.402797
  ----------------------------------------
  Sum of atomic charges =     0.000000

                    Cartesian Multipole Moments
 -----------------------------------------------------------------
    Charge (ESU x 10^10)
                 0.0000
    Dipole Moment (Debye)
         X      -0.0000      Y       0.0000      Z       0.0000
       Tot       0.0000
    Quadrupole Moments (Debye-Ang)
        XX      -9.3684     XY       4.4371     YY     -10.0895
        XZ      -0.0000     YZ      -0.0000     ZZ     -12.6701

 Final energy is -151.436800687945
	**  OPTIMIZATION CONVERGED  **

             Standard Nuclear Orientation (Angstroms)
    I     Atom           X                Y                Z
 ----------------------------------------------------------------
    1      O       0.7314708730    -0.1813643878     0.0000000000
    2      O      -0.7314783869     0.1813692753     0.0000000000
    3      H       1.1094159554     0.7231322059    -0.0000000000
    4      H      -1.1094234906    -0.7231273086    -0.0000000000
 ----------------------------------------------------------------

 Total job time:  4.31s(wall), 4.31s(cpu)
        *  Thank you very much for using Q-Chem.  Have a nice day.  *
