 Q-Chem 6.1, Q-Chem, Inc., Pleasanton, CA (2023)
 Q-Chem 6.1.1 for Intel X86 EM64T Linux

User input:
--------------------------------------------------------------
$molecule
0 1
O    0.1690624    1.2756854    0.0000000
O    0.8245303    2.4169594    0.0000000
H   -0.7861349    1.5375618    0.0000000
H    1.7797237    2.1550736    0.0000000
$end

$rem
BASIS  =  6-31G
GUI  =  2
JOB_TYPE  =  Optimization
METHOD  =  PBE
SCF_CONVERGENCE  =  8
$end

--------------------------------------------------------------

   10    -151.3071233789      1.08e-09  Convergence criterion met
 Total energy =  -151.30712338
    9    -151.3341989117      9.01e-10  Convergence criterion met
 Total energy =  -151.33419891
    9    -151.3382626142      4.09e-10  Convergence criterion met
 Total energy =  -151.33826261
    8    -151.3386094537      1.66e-09  Convergence criterion met
 Total energy =  -151.33860945
    8    -151.3386574194      3.06e-09  Convergence criterion met
 Total energy =  -151.33865742
    6    -151.3386577668      6.67e-09  Convergence criterion met
 Total energy =  -151.33865777

             Orbital Energies (a.u.) and Symmetries
 --------------------------------------------------------------

 Alpha MOs, Restricted
 -- Occupied --
-18.821 -18.821  -0.997  -0.830  -0.447  -0.429  -0.311  -0.311
  1 A'    2 A'    3 A'    4 A'    5 A'    6 A'    7 A'    1 A"
 -0.196
  2 A"

 Beta MOs, Restricted
 -- Occupied --
-18.821 -18.821  -0.997  -0.830  -0.447  -0.429  -0.311  -0.311
  1 A'    2 A'    3 A'    4 A'    5 A'    6 A'    7 A'    1 A"
 -0.196
  2 A"

          Ground-State Mulliken Net Atomic Charges

     Atom                 Charge (a.u.)
  ----------------------------------------
      1 O                    -0.393084
      2 O                    -0.393084
      3 H                     0.393084
      4 H                     0.393084
  ----------------------------------------
  Sum of atomic charges =     0.000000

                    Cartesian Multipole Moments
 -----------------------------------------------------------------
    Charge (ESU x 10^10)
                 0.0000
    Dipole Moment (Debye)
         X       0.0000      Y      -0.0000      Z      -0.0000
       Tot       0.0000
    Quadrupole Moments (Debye-Ang)
        XX      -9.3469     XY       4.2256     YY     -10.1233
        XZ       0.0000     YZ       0.0000     ZZ     -12.7581

 Final energy is -151.338657766801
	**  OPTIMIZATION CONVERGED  **

             Standard Nuclear Orientation (Angstroms)
    I     Atom           X                Y                Z
 ----------------------------------------------------------------
    1      O       0.7514437879    -0.1950077803    -0.0000000000
    2      O      -0.7514400986     0.1950063646    -0.0000000000
    3      H       1.1134980970     0.7309843847     0.0000000000
    4      H      -1.1134943962    -0.7309858044     0.0000000000
 ----------------------------------------------------------------

 Total job time:  2.33s(wall), 2.31s(cpu)
        *  Thank you very much for using Q-Chem.  Have a nice day.  *
