 Q-Chem 6.1, Q-Chem, Inc., Pleasanton, CA (2023)
 Q-Chem 6.1.1 for Intel X86 EM64T Linux

User input:
--------------------------------------------------------------
$molecule
0 1
O   -0.6381366    2.8321475   -0.9541590
O    0.5310458    2.4071658   -0.5219722
H    0.3422338    2.0036088    0.3636655
H   -0.9354093    2.1417287   -1.6005435
$end

$rem
BASIS  =  6-31G
GUI  =  2
JOB_TYPE  =  Optimization
METHOD  =  wB97XV
SCF_CONVERGENCE  =  8
$end

--------------------------------------------------------------

   11    -151.4073076359      1.80e-09  Convergence criterion met
 Total energy =  -151.40730764
   10    -151.4245776831      5.18e-09  Convergence criterion met
 Total energy =  -151.42457768
   10    -151.4276069851      1.95e-09  Convergence criterion met
 Total energy =  -151.42760699
   10    -151.4279616555      8.54e-09  Convergence criterion met
 Total energy =  -151.42796166
   10    -151.4285222457      6.42e-09  Convergence criterion met
 Total energy =  -151.42852225
   11    -151.4289585761      1.89e-09  Convergence criterion met
 Total energy =  -151.42895858
   10    -151.4293185311      3.10e-09  Convergence criterion met
 Total energy =  -151.42931853
   11    -151.4294521469      9.79e-10  Convergence criterion met
 Total energy =  -151.42945215
    9    -151.4294821685      9.81e-09  Convergence criterion met
 Total energy =  -151.42948217
   10    -151.4294935028      8.74e-09  Convergence criterion met
 Total energy =  -151.42949350
    9    -151.4294992386      9.81e-09  Convergence criterion met
 Total energy =  -151.42949924
   10    -151.4295006232      2.83e-09  Convergence criterion met
 Total energy =  -151.42950062
    9    -151.4295008903      2.61e-09  Convergence criterion met
 Total energy =  -151.42950089

             Orbital Energies (a.u.) and Symmetries
 --------------------------------------------------------------

 Alpha MOs, Restricted
 -- Occupied --
-19.289 -19.289  -1.238  -1.039  -0.611  -0.607  -0.502  -0.463
  1 B     1 A     2 A     2 B     3 A     3 B     4 A     5 A
 -0.367
  4 B

 Beta MOs, Restricted
 -- Occupied --
-19.289 -19.289  -1.238  -1.039  -0.611  -0.607  -0.502  -0.463
  1 B     1 A     2 A     2 B     3 A     3 B     4 A     5 A
 -0.367
  4 B

          Ground-State Mulliken Net Atomic Charges

     Atom                 Charge (a.u.)
  ----------------------------------------
      1 O                    -0.404498
      2 O                    -0.404499
      3 H                     0.404499
      4 H                     0.404498
  ----------------------------------------
  Sum of atomic charges =     0.000000

                    Cartesian Multipole Moments
 -----------------------------------------------------------------
    Charge (ESU x 10^10)
                 0.0000
    Dipole Moment (Debye)
         X      -0.0000      Y       0.0000      Z       0.3007
       Tot       0.3007
    Quadrupole Moments (Debye-Ang)
        XX      -9.1406     XY       4.3942     YY     -10.3914
        XZ      -0.0000     YZ       0.0000     ZZ     -12.5672

 Final energy is -151.429500890255
	**  OPTIMIZATION CONVERGED  **

             Standard Nuclear Orientation (Angstroms)
    I     Atom           X                Y                Z
 ----------------------------------------------------------------
    1      O      -0.7257133122     0.2031366014     0.2035194485
    2      O       0.7257133163    -0.2031366022     0.2035194481
    3      H       1.1297497163     0.6873940001     0.2712280144
    4      H      -1.1297497204    -0.6873939993     0.2712280148
 ----------------------------------------------------------------

 Total job time:  105.45s(wall), 105.54s(cpu)
        *  Thank you very much for using Q-Chem.  Have a nice day.  *
