 Q-Chem 6.1, Q-Chem, Inc., Pleasanton, CA (2023)
 Q-Chem 6.1.1 for Intel X86 EM64T Linux

User input:
--------------------------------------------------------------
$molecule
0 1
O   -0.6381366    2.8321475   -0.9541590
O    0.5310458    2.4071658   -0.5219722
H    0.3422338    2.0036088    0.3636655
H   -0.9354093    2.1417287   -1.6005435
$end

$rem
BASIS  =  6-31G
GUI  =  2
JOB_TYPE  =  Frequency
METHOD  =  PBE
SCF_CONVERGENCE  =  8
$end

--------------------------------------------------------------

             Standard Nuclear Orientation (Angstroms)
    I     Atom           X                Y                Z
 ----------------------------------------------------------------
    1      O      -0.6487265837     0.1129132835    -0.0678211424
    2      O       0.6487265837    -0.1129132835    -0.0678211424
    3      H       1.0249422653     0.5717387965     0.5425686053
    4      H      -1.0249422653    -0.5717387965     0.5425686053
 ----------------------------------------------------------------

    9    -151.3104297527      3.41e-09  Convergence criterion met
 Total energy =  -151.31042975

             Orbital Energies (a.u.) and Symmetries
 --------------------------------------------------------------

 Alpha MOs, Restricted
 -- Occupied --
-18.812 -18.812  -1.108  -0.798  -0.527  -0.424  -0.368  -0.226
  1 B     1 A     2 A     2 B     3 A     3 B     4 A     5 A
 -0.205
  4 B

 Beta MOs, Restricted
 -- Occupied --
-18.812 -18.812  -1.108  -0.798  -0.527  -0.424  -0.368  -0.226
  1 B     1 A     2 A     2 B     3 A     3 B     4 A     5 A
 -0.205
  4 B

          Ground-State Mulliken Net Atomic Charges

     Atom                 Charge (a.u.)
  ----------------------------------------
      1 O                    -0.373429
      2 O                    -0.373429
      3 H                     0.373429
      4 H                     0.373429
  ----------------------------------------
  Sum of atomic charges =     0.000000

                    Cartesian Multipole Moments
 -----------------------------------------------------------------
    Charge (ESU x 10^10)
                -0.0000
    Dipole Moment (Debye)
         X       0.0000      Y      -0.0000      Z       2.5101
       Tot       2.5101
    Quadrupole Moments (Debye-Ang)
        XX     -10.5342     XY       2.9395     YY     -11.0295
        XZ      -0.0000     YZ      -0.0000     ZZ     -11.1637

 Frequency:       478.86                1321.83                1449.36
 Force Cnst:      0.1487                 4.5417                 1.4070
 Red. Mass:       1.1006                 4.4118                 1.1369
 IR Intens:      171.272                  5.764                 65.191
 Frequency:      1574.63                3364.74                3381.72
 Force Cnst:      1.9278                 7.1266                 7.1904
 Red. Mass:       1.3196                 1.0684                 1.0672
 IR Intens:        0.479                 10.337                 16.254

 STANDARD THERMODYNAMIC QUANTITIES AT   298.15 K  AND     1.00 ATM

   This Molecule has  0 Imaginary Frequencies
   Zero point vibrational energy:       16.542 kcal/mol

   Atom    1 Element O  Has Mass   15.99491
   Atom    2 Element O  Has Mass   15.99491
   Atom    3 Element H  Has Mass    1.00783
   Atom    4 Element H  Has Mass    1.00783
   Molecular Mass:    34.005480 amu
   Principal axes and moments of inertia in amu*Bohr^2:
                             1           2           3
    Eigenvalues --        6.00209    58.49113    59.44751
          X              -0.99685     0.07931     0.00000
          Y               0.07931     0.99685     0.00000
          Z               0.00000     0.00000     1.00000
   Rotational Symmetry Number is   2
   The Molecule is an Asymmetric Top
   Translational Enthalpy:        0.889 kcal/mol
   Rotational Enthalpy:           0.889 kcal/mol
   Vibrational Enthalpy:         16.705 kcal/mol
   gas constant (RT):             0.592 kcal/mol
   Translational Entropy:        36.503  cal/mol.K
   Rotational Entropy:           16.308  cal/mol.K
   Vibrational Entropy:           0.761  cal/mol.K

   Total Enthalpy:               19.075 kcal/mol
   Total Entropy:                53.572  cal/mol.K

 Total job time:  2.07s(wall), 2.06s(cpu)
        *  Thank you very much for using Q-Chem.  Have a nice day.  *
