 Q-Chem 6.1, Q-Chem, Inc., Pleasanton, CA (2023)
 Q-Chem 6.1.1 for Intel X86 EM64T Linux

User input:
--------------------------------------------------------------
$molecule
0 1
O   -3.1874208    2.7582487    0.0000000
O   -1.8611997    2.6680038    0.0000000
H   -3.5808926    1.8429124    0.0000000
H   -1.5953672    1.7078024    0.0000000
$end

$rem
BASIS  =  6-31G
GUI  =  2
JOB_TYPE  =  Optimization
METHOD  =  TPSS
SCF_CONVERGENCE  =  8
$end

--------------------------------------------------------------

   10    -151.4633427341      5.78e-09  Convergence criterion met
 Total energy =  -151.46334273
    9    -151.4867869431      7.88e-10  Convergence criterion met
 Total energy =  -151.48678694
    9    -151.4906734703      1.63e-09  Convergence criterion met
 Total energy =  -151.49067347
    9    -151.4910529051      5.71e-10  Convergence criterion met
 Total energy =  -151.49105291
    8    -151.4910754125      2.28e-09  Convergence criterion met
 Total energy =  -151.49107541
    8    -151.4910769119      2.25e-10  Convergence criterion met
 Total energy =  -151.49107691
    5    -151.4910769253      8.28e-09  Convergence criterion met
 Total energy =  -151.49107693

             Orbital Energies (a.u.) and Symmetries
 --------------------------------------------------------------

 Alpha MOs, Restricted
 -- Occupied --
-18.965 -18.965  -1.022  -0.861  -0.502  -0.363  -0.342  -0.322
  1 A'    2 A'    3 A'    4 A'    5 A'    6 A'    7 A'    1 A"
 -0.210
  2 A"

 Beta MOs, Restricted
 -- Occupied --
-18.965 -18.965  -1.022  -0.861  -0.502  -0.363  -0.342  -0.322
  1 A'    2 A'    3 A'    4 A'    5 A'    6 A'    7 A'    1 A"
 -0.210
  2 A"

          Ground-State Mulliken Net Atomic Charges

     Atom                 Charge (a.u.)
  ----------------------------------------
      1 O                    -0.359778
      2 O                    -0.359778
      3 H                     0.359778
      4 H                     0.359778
  ----------------------------------------
  Sum of atomic charges =     0.000000

                    Cartesian Multipole Moments
 -----------------------------------------------------------------
    Charge (ESU x 10^10)
                -0.0000
    Dipole Moment (Debye)
         X       0.0000      Y      -3.7166      Z       0.0000
       Tot       3.7166
    Quadrupole Moments (Debye-Ang)
        XX     -10.5703     XY      -0.0000     YY      -9.4323
        XZ      -0.0000     YZ      -0.0000     ZZ     -12.7397

 Final energy is -151.491076925334
	**  OPTIMIZATION CONVERGED  **

             Standard Nuclear Orientation (Angstroms)
    I     Atom           X                Y                Z
 ----------------------------------------------------------------
    1      O       0.7791298732     0.1187490069     0.0000000000
    2      O      -0.7791264292     0.1187433276    -0.0000000000
    3      H       1.0257235228    -0.8498052731     0.0000000000
    4      H      -1.0257129712    -0.8498127729     0.0000000000
 ----------------------------------------------------------------

 Total job time:  12.14s(wall), 12.14s(cpu)
        *  Thank you very much for using Q-Chem.  Have a nice day.  *
