 Q-Chem 6.1, Q-Chem, Inc., Pleasanton, CA (2023)
 Q-Chem 6.1.1 for Intel X86 EM64T Linux

User input:
--------------------------------------------------------------
$molecule
0 1
O   -1.1212211    1.1151419    0.0000000
O    0.1610215    0.7646275    0.0000000
H   -1.1920920    2.1089392    0.0000000
H    0.7275760    1.5841791    0.0000000
$end

$rem
BASIS  =  6-31G
GUI  =  2
JOB_TYPE  =  Frequency
METHOD  =  PBE0
SCF_CONVERGENCE  =  8
$end

--------------------------------------------------------------

             Standard Nuclear Orientation (Angstroms)
    I     Atom           X                Y                Z
 ----------------------------------------------------------------
    1      O       0.6646430622     0.1044385149    -0.0000000000
    2      O      -0.6646448787     0.1044366757    -0.0000000000
    3      H       0.9950573138    -0.8354988130     0.0000000000
    4      H      -0.9950427823    -0.8355027116     0.0000000000
 ----------------------------------------------------------------

    9    -151.2899353196      3.28e-09  Convergence criterion met
 Total energy =  -151.28993532

             Orbital Energies (a.u.) and Symmetries
 --------------------------------------------------------------

 Alpha MOs, Restricted
 -- Occupied --
-19.273 -19.273  -1.224  -0.910  -0.629  -0.444  -0.442  -0.364
  1 A'    2 A'    3 A'    4 A'    5 A'    6 A'    1 A"    7 A'
 -0.242
  2 A"

 Beta MOs, Restricted
 -- Occupied --
-19.273 -19.273  -1.224  -0.910  -0.629  -0.444  -0.442  -0.364
  1 A'    2 A'    3 A'    4 A'    5 A'    6 A'    1 A"    7 A'
 -0.242
  2 A"

          Ground-State Mulliken Net Atomic Charges

     Atom                 Charge (a.u.)
  ----------------------------------------
      1 O                    -0.380383
      2 O                    -0.380379
      3 H                     0.380381
      4 H                     0.380381
  ----------------------------------------
  Sum of atomic charges =     0.000000

                    Cartesian Multipole Moments
 -----------------------------------------------------------------
    Charge (ESU x 10^10)
                -0.0000
    Dipole Moment (Debye)
         X       0.0000      Y      -3.9560      Z       0.0000
       Tot       3.9560
    Quadrupole Moments (Debye-Ang)
        XX     -10.9457     XY      -0.0000     YY      -9.2864
        XZ       0.0000     YZ      -0.0000     ZZ     -12.5496

 Frequency:      -639.68                1351.65                1532.06
 Force Cnst:      0.2748                 6.8325                 1.5333
 Red. Mass:       1.1400                 6.3475                 1.1087
 IR Intens:        0.000                  0.008                  0.962
 Frequency:      1613.34                3324.32                3402.72
 Force Cnst:      1.9082                 6.9329                 7.3167
 Red. Mass:       1.2443                 1.0648                 1.0725
 IR Intens:       54.838                  0.069                  0.001

 STANDARD THERMODYNAMIC QUANTITIES AT   298.15 K  AND     1.00 ATM

   This Molecule has  1 Imaginary Frequencies
   Zero point vibrational energy:       16.046 kcal/mol

   Atom    1 Element O  Has Mass   15.99491
   Atom    2 Element O  Has Mass   15.99491
   Atom    3 Element H  Has Mass    1.00783
   Atom    4 Element H  Has Mass    1.00783
   Molecular Mass:    34.005480 amu
   Principal axes and moments of inertia in amu*Bohr^2:
                             1           2           3
    Eigenvalues --        5.98242    57.59167    63.57408
          X              -1.00000     0.00000     0.00000
          Y              -0.00000    -1.00000     0.00000
          Z               0.00000     0.00000     1.00000
   Rotational Symmetry Number is   1
   The Molecule is an Asymmetric Top
   Translational Enthalpy:        0.889 kcal/mol
   Rotational Enthalpy:           0.889 kcal/mol
   Vibrational Enthalpy:         16.056 kcal/mol
   gas constant (RT):             0.592 kcal/mol
   Translational Entropy:        36.503  cal/mol.K
   Rotational Entropy:           17.733  cal/mol.K
   Vibrational Entropy:           0.040  cal/mol.K

   Total Enthalpy:               18.426 kcal/mol
   Total Entropy:                54.276  cal/mol.K

 Total job time:  2.37s(wall), 2.35s(cpu)
        *  Thank you very much for using Q-Chem.  Have a nice day.  *
