 Q-Chem 6.1, Q-Chem, Inc., Pleasanton, CA (2023)
 Q-Chem 6.1.1 for Intel X86 EM64T Linux

User input:
--------------------------------------------------------------
$molecule
0 1
O   -0.6381366    2.8321475   -0.9541590
O    0.5310458    2.4071658   -0.5219722
H    0.3422338    2.0036088    0.3636655
H   -0.9354093    2.1417287   -1.6005435
$end

$rem
BASIS  =  6-31G
GUI  =  2
JOB_TYPE  =  Optimization
METHOD  =  B3LYp
SCF_CONVERGENCE  =  8
$end

--------------------------------------------------------------

    9    -151.4656332443      3.40e-09  Convergence criterion met
 Total energy =  -151.46563324
    8    -151.4851371079      7.75e-09  Convergence criterion met
 Total energy =  -151.48513711
    8    -151.4888762767      9.26e-09  Convergence criterion met
 Total energy =  -151.48887628
    8    -151.4893559279      5.64e-09  Convergence criterion met
 Total energy =  -151.48935593
    9    -151.4898148290      2.46e-09  Convergence criterion met
 Total energy =  -151.48981483
   10    -151.4902817019      1.58e-10  Convergence criterion met
 Total energy =  -151.49028170
    8    -151.4906841191      6.64e-09  Convergence criterion met
 Total energy =  -151.49068412
    9    -151.4909820106      8.84e-09  Convergence criterion met
 Total energy =  -151.49098201
    8    -151.4910583097      4.63e-09  Convergence criterion met
 Total energy =  -151.49105831
    9    -151.4910734398      4.78e-09  Convergence criterion met
 Total energy =  -151.49107344
    8    -151.4910861928      3.68e-09  Convergence criterion met
 Total energy =  -151.49108619
    9    -151.4910905009      3.40e-09  Convergence criterion met
 Total energy =  -151.49109050
    7    -151.4910907972      4.02e-09  Convergence criterion met
 Total energy =  -151.49109080

             Orbital Energies (a.u.) and Symmetries
 --------------------------------------------------------------

 Alpha MOs, Restricted
 -- Occupied --
-19.205 -19.205  -1.099  -0.917  -0.500  -0.493  -0.384  -0.361
  1 A     1 B     2 A     2 B     3 A     3 B     4 A     5 A
 -0.261
  4 B

 Beta MOs, Restricted
 -- Occupied --
-19.205 -19.205  -1.099  -0.917  -0.500  -0.493  -0.384  -0.361
  1 A     1 B     2 A     2 B     3 A     3 B     4 A     5 A
 -0.261
  4 B

          Ground-State Mulliken Net Atomic Charges

     Atom                 Charge (a.u.)
  ----------------------------------------
      1 O                    -0.399382
      2 O                    -0.399382
      3 H                     0.399382
      4 H                     0.399382
  ----------------------------------------
  Sum of atomic charges =     0.000000

                    Cartesian Multipole Moments
 -----------------------------------------------------------------
    Charge (ESU x 10^10)
                -0.0000
    Dipole Moment (Debye)
         X       0.0000      Y      -0.0000      Z       0.0082
       Tot       0.0082
    Quadrupole Moments (Debye-Ang)
        XX      -9.0920     XY       4.3127     YY     -10.3428
        XZ       0.0000     YZ      -0.0000     ZZ     -12.6693

 Final energy is -151.491090797235
	**  OPTIMIZATION CONVERGED  **

             Standard Nuclear Orientation (Angstroms)
    I     Atom           X                Y                Z
 ----------------------------------------------------------------
    1      O      -0.7368446851     0.2083644677     0.2364282453
    2      O       0.7368446848    -0.2083644676     0.2364282410
    3      H       1.1320596050     0.6922172685     0.2383192199
    4      H      -1.1320596046    -0.6922172686     0.2383192197
 ----------------------------------------------------------------

 Total job time:  5.52s(wall), 5.50s(cpu)
        *  Thank you very much for using Q-Chem.  Have a nice day.  *
