 Q-Chem 6.1, Q-Chem, Inc., Pleasanton, CA (2023)
 Q-Chem 6.1.1 for Intel X86 EM64T Linux

User input:
--------------------------------------------------------------
$molecule
0 3
Mg   -3.0711550    1.5890820    0.0000000
$end

$rem
BASIS  =  6-31G
GUI  =  2
METHOD  =  B3LYP
$end

--------------------------------------------------------------

    6    -199.9752551011      3.97e-07  Convergence criterion met
 Total energy =  -199.97525510
 Total job time:  0.25s(wall), 0.24s(cpu)
        *  Thank you very much for using Q-Chem.  Have a nice day.  *
 Q-Chem 6.1, Q-Chem, Inc., Pleasanton, CA (2023)
 Q-Chem 6.1.1 for Intel X86 EM64T Linux

User input:
--------------------------------------------------------------

$molecule
read
$end

$rem
BASIS  =  6-31G
GUI  =  2
METHOD  =  PBE0
$end

--------------------------------------------------------------

    6    -199.8546091845      1.06e-06  Convergence criterion met
 Total energy =  -199.85460918
 Total job time:  0.21s(wall), 0.20s(cpu)
 Q-Chem 6.1, Q-Chem, Inc., Pleasanton, CA (2023)
 Q-Chem 6.1.1 for Intel X86 EM64T Linux

User input:
--------------------------------------------------------------

$molecule
read
$end

$rem
BASIS  =  6-31G
GUI  =  2
METHOD  =  PBE
$end

--------------------------------------------------------------

    5    -199.8327416215      7.64e-06  Convergence criterion met
 Total energy =  -199.83274162
 Q-Chem 6.1, Q-Chem, Inc., Pleasanton, CA (2023)
 Q-Chem 6.1.1 for Intel X86 EM64T Linux
    5    -199.9590847607      6.14e-06  Convergence criterion met
 Total energy =  -199.95908476
 Q-Chem 6.1, Q-Chem, Inc., Pleasanton, CA (2023)
 Q-Chem 6.1.1 for Intel X86 EM64T Linux
    5    -199.9667067351      9.49e-06  Convergence criterion met
 Total energy =  -199.96670674
 Q-Chem 6.1, Q-Chem, Inc., Pleasanton, CA (2023)
 Q-Chem 6.1.1 for Intel X86 EM64T Linux
    6    -199.9517065497      1.39e-06  Convergence criterion met
 Total energy =  -199.95170655
 Q-Chem 6.1, Q-Chem, Inc., Pleasanton, CA (2023)
 Q-Chem 6.1.1 for Intel X86 EM64T Linux
    7    -199.9480008406      4.04e-06  Convergence criterion met
 Total energy =  -199.94800084
 Q-Chem 6.1, Q-Chem, Inc., Pleasanton, CA (2023)
 Q-Chem 6.1.1 for Intel X86 EM64T Linux
    7    -199.9227820121      5.29e-07  Convergence criterion met
 Total energy =  -199.92278201
 Q-Chem 6.1, Q-Chem, Inc., Pleasanton, CA (2023)
 Q-Chem 6.1.1 for Intel X86 EM64T Linux
    5    -199.9160472680      6.74e-06  Convergence criterion met
 Total energy =  -199.91604727
        *  Thank you very much for using Q-Chem.  Have a nice day.  *
 Q-Chem 6.1, Q-Chem, Inc., Pleasanton, CA (2023)
 Q-Chem 6.1.1 for Intel X86 EM64T Linux

             Standard Nuclear Orientation (Angstroms)
    I     Atom           X                Y                Z
 ----------------------------------------------------------------
    1      Mg      0.0000000000     0.0000000000     0.0000000000
 ----------------------------------------------------------------

    7    -199.9123908936      1.84e-06  Convergence criterion met
 Total energy =  -199.91239089

                    Orbital Energies (a.u.)
 --------------------------------------------------------------

 Alpha MOs
 -- Occupied --
-46.9017  -3.2733  -2.0083  -2.0083  -2.0056  -0.3281  -0.1762

 Beta MOs
 -- Occupied --
-46.8983  -3.2671  -2.0044  -2.0044  -1.9971

          Ground-State Mulliken Net Atomic Charges

     Atom                 Charge (a.u.)    Spin (a.u.)
  --------------------------------------------------------
      1 Mg                    0.000000       2.000000
  --------------------------------------------------------
  Sum of atomic charges =     0.000000

                    Cartesian Multipole Moments
 -----------------------------------------------------------------
    Charge (ESU x 10^10)
                 0.0000
    Dipole Moment (Debye)
         X       0.0000      Y      -0.0000      Z       0.0000
       Tot       0.0000
    Quadrupole Moments (Debye-Ang)
        XX     -12.0777     XY       0.0005     YY     -21.9239
        XZ       0.0000     YZ      -0.0000     ZZ     -12.0777

 STANDARD THERMODYNAMIC QUANTITIES AT   298.15 K  AND     1.00 ATM

   Translational Enthalpy:        0.889 kcal/mol
   Rotational Enthalpy:           0.000 kcal/mol
   Vibrational Enthalpy:          0.000 kcal/mol
   gas constant (RT):             0.592 kcal/mol
   Translational Entropy:        35.462  cal/mol.K
   Rotational Entropy:            0.000  cal/mol.K
   Vibrational Entropy:           0.000  cal/mol.K

   Total Enthalpy:                1.481 kcal/mol
   Total Entropy:                35.462  cal/mol.K

 Total job time:  0.62s(wall), 0.61s(cpu)
        *  Thank you very much for using Q-Chem.  Have a nice day.  *
