 Q-Chem 6.1, Q-Chem, Inc., Pleasanton, CA (2023)
 Q-Chem 6.1.1 for Intel X86 EM64T Linux

User input:
--------------------------------------------------------------
$molecule
0 1
O   -2.3918617    1.5842959    0.0807214
O   -1.4208449    1.5752991    0.9703595
H   -3.1999218    1.8489102    0.5905001
H   -0.9377166    2.4289738    0.8265444
$end

$rem
BASIS  =  6-31G
GUI  =  2
JOB_TYPE  =  Frequency
METHOD  =  HF
SCF_CONVERGENCE  =  8
SYMMETRY_IGNORE  =  1
$end

--------------------------------------------------------------

             Standard Nuclear Orientation (Angstroms)
    I     Atom           X                Y                Z
 ----------------------------------------------------------------
    1      O      -2.3918617000     1.5842959000     0.0807214000
    2      O      -1.4208449000     1.5752991000     0.9703595000
    3      H      -3.1999218000     1.8489102000     0.5905001000
    4      H      -0.9377166000     2.4289738000     0.8265444000
 ----------------------------------------------------------------

   12    -150.6917821835      3.82e-09  Convergence criterion met
 Total energy =  -150.69178218

                    Orbital Energies (a.u.)
 --------------------------------------------------------------

 Alpha MOs
 -- Occupied --
-20.6274 -20.6270  -1.5595  -1.1864  -0.7534  -0.7140  -0.6345  -0.4853
 -0.4709

          Ground-State Mulliken Net Atomic Charges

     Atom                 Charge (a.u.)
  ----------------------------------------
      1 O                    -0.428203
      2 O                    -0.428203
      3 H                     0.428203
      4 H                     0.428203
  ----------------------------------------
  Sum of atomic charges =     0.000000

                    Cartesian Multipole Moments
 -----------------------------------------------------------------
    Charge (ESU x 10^10)
                -0.0000
    Dipole Moment (Debye)
         X      -0.7398      Y       2.5463      Z       0.8333
       Tot       2.7794
    Quadrupole Moments (Debye-Ang)
        XX      -5.1447     XY      -4.8653     YY      -2.5477
        XZ      -3.0719     YZ       3.3038     ZZ     -12.7965

 Frequency:       893.43                1418.94                1691.53
 Force Cnst:      0.5151                16.4713                 1.9188
 Red. Mass:       1.0953                13.8852                 1.1382
 IR Intens:      228.345                  2.949                116.632
 Frequency:      1760.33                3443.17                3445.48
 Force Cnst:      2.0114                 7.4602                 7.4558
 Red. Mass:       1.1017                 1.0680                 1.0660
 IR Intens:        0.852                  7.388                 23.054

 STANDARD THERMODYNAMIC QUANTITIES AT   298.15 K  AND     1.00 ATM

   This Molecule has  0 Imaginary Frequencies
   Zero point vibrational energy:       18.088 kcal/mol

   Atom    1 Element O  Has Mass   15.99491
   Atom    2 Element O  Has Mass   15.99491
   Atom    3 Element H  Has Mass    1.00783
   Atom    4 Element H  Has Mass    1.00783
   Molecular Mass:    34.005480 amu
   Principal axes and moments of inertia in amu*Bohr^2:
                             1           2           3
    Eigenvalues --        6.00206    58.49157    59.44867
          X               0.79175    -0.54980    -0.26619
          Y               0.03040    -0.39977     0.91611
          Z               0.61009     0.73343     0.29980
   Rotational Symmetry Number is   1
   The Molecule is an Asymmetric Top
   Translational Enthalpy:        0.889 kcal/mol
   Rotational Enthalpy:           0.889 kcal/mol
   Vibrational Enthalpy:         18.130 kcal/mol
   gas constant (RT):             0.592 kcal/mol
   Translational Entropy:        36.503  cal/mol.K
   Rotational Entropy:           17.685  cal/mol.K
   Vibrational Entropy:           0.169  cal/mol.K

   Total Enthalpy:               20.500 kcal/mol
   Total Entropy:                54.357  cal/mol.K

 Total job time:  0.79s(wall), 0.78s(cpu)
        *  Thank you very much for using Q-Chem.  Have a nice day.  *
