 Q-Chem 6.1, Q-Chem, Inc., Pleasanton, CA (2023)
 Q-Chem 6.1.1 for Intel X86 EM64T Linux

User input:
--------------------------------------------------------------
$molecule
0 1
O   -1.9613189    1.9685705    0.4280829
O   -0.6802181    2.2678296    0.3679329
H   -2.3932611    2.5708044   -0.2304054
H   -0.2789677    1.5526525   -0.1891905
$end

$rem
BASIS  =  6-31G
GUI  =  2
JOB_TYPE  =  Optimization
METHOD  =  M06-2X
SCF_CONVERGENCE  =  8
$end

--------------------------------------------------------------

   10    -151.4003581560      4.81e-09  Convergence criterion met
 Total energy =  -151.40035816
   10    -151.4164365073      1.17e-09  Convergence criterion met
 Total energy =  -151.41643651
    9    -151.4192618928      4.30e-09  Convergence criterion met
 Total energy =  -151.41926189
   10    -151.4196326669      2.52e-09  Convergence criterion met
 Total energy =  -151.41963267
    9    -151.4202349798      7.95e-09  Convergence criterion met
 Total energy =  -151.42023498
   10    -151.4207305770      5.88e-09  Convergence criterion met
 Total energy =  -151.42073058
    9    -151.4211036672      8.81e-09  Convergence criterion met
 Total energy =  -151.42110367
   10    -151.4212249007      2.71e-09  Convergence criterion met
 Total energy =  -151.42122490
    9    -151.4212688526      5.68e-09  Convergence criterion met
 Total energy =  -151.42126885
    9    -151.4212726115      7.50e-09  Convergence criterion met
 Total energy =  -151.42127261
    8    -151.4212735465      4.20e-09  Convergence criterion met
 Total energy =  -151.42127355

             Orbital Energies (a.u.) and Symmetries
 --------------------------------------------------------------

 Alpha MOs, Restricted
 -- Occupied --
-19.698 -19.698  -1.240  -1.026  -0.580  -0.577  -0.482  -0.429
  1 A     1 B     2 A     2 B     3 B     3 A     4 A     5 A
 -0.343
  4 B

 Beta MOs, Restricted
 -- Occupied --
-19.698 -19.698  -1.240  -1.026  -0.580  -0.577  -0.482  -0.429
  1 A     1 B     2 A     2 B     3 B     3 A     4 A     5 A
 -0.343
  4 B

          Ground-State Mulliken Net Atomic Charges

     Atom                 Charge (a.u.)
  ----------------------------------------
      1 O                    -0.419562
      2 O                    -0.419562
      3 H                     0.419562
      4 H                     0.419562
  ----------------------------------------
  Sum of atomic charges =     0.000000

                    Cartesian Multipole Moments
 -----------------------------------------------------------------
    Charge (ESU x 10^10)
                -0.0000
    Dipole Moment (Debye)
         X      -0.0000      Y       0.0000      Z       0.5609
       Tot       0.5609
    Quadrupole Moments (Debye-Ang)
        XX      -9.1662     XY       4.4533     YY     -10.3956
        XZ       0.0000     YZ       0.0000     ZZ     -12.4327

 Final energy is -151.421273546475
	**  OPTIMIZATION CONVERGED  **

             Standard Nuclear Orientation (Angstroms)
    I     Atom           X                Y                Z
 ----------------------------------------------------------------
    1      O      -0.7211437810     0.1992172437     0.1756754567
    2      O       0.7211437854    -0.1992172449     0.1756754516
    3      H      -1.1270181462    -0.6831677977     0.2992483445
    4      H       1.1270181418     0.6831677989     0.2992483450
 ----------------------------------------------------------------

 Total job time:  31.85s(wall), 31.86s(cpu)
        *  Thank you very much for using Q-Chem.  Have a nice day.  *
