 Q-Chem 6.1, Q-Chem, Inc., Pleasanton, CA (2023)
 Q-Chem 6.1.1 for Intel X86 EM64T Linux

User input:
--------------------------------------------------------------
$molecule
0 1
O   -3.1874208    2.7582487    0.0000000
O   -1.8611997    2.6680038    0.0000000
H   -3.5808926    1.8429124    0.0000000
H   -1.5953672    1.7078024    0.0000000
$end

$rem
BASIS  =  6-31G
GUI  =  2
JOB_TYPE  =  Frequency
METHOD  =  TPSS
SCF_CONVERGENCE  =  8
$end

--------------------------------------------------------------

             Standard Nuclear Orientation (Angstroms)
    I     Atom           X                Y                Z
 ----------------------------------------------------------------
    1      O       0.6646429930     0.1044385346    -0.0000000000
    2      O      -0.6646449924     0.1044365670    -0.0000000000
    3      H       0.9950665166    -0.8354981092     0.0000000000
    4      H      -0.9950505217    -0.8355027038     0.0000000000
 ----------------------------------------------------------------

   10    -151.4633427346      5.78e-09  Convergence criterion met
 Total energy =  -151.46334273

             Orbital Energies (a.u.) and Symmetries
 --------------------------------------------------------------

 Alpha MOs, Restricted
 -- Occupied --
-18.950 -18.949  -1.117  -0.822  -0.565  -0.376  -0.365  -0.301
  1 A'    2 A'    3 A'    4 A'    5 A'    6 A'    1 A"    7 A'
 -0.173
  2 A"

 Beta MOs, Restricted
 -- Occupied --
-18.950 -18.949  -1.117  -0.822  -0.565  -0.376  -0.365  -0.301
  1 A'    2 A'    3 A'    4 A'    5 A'    6 A'    1 A"    7 A'
 -0.173
  2 A"

          Ground-State Mulliken Net Atomic Charges

     Atom                 Charge (a.u.)
  ----------------------------------------
      1 O                    -0.360811
      2 O                    -0.360807
      3 H                     0.360809
      4 H                     0.360809
  ----------------------------------------
  Sum of atomic charges =     0.000000

                    Cartesian Multipole Moments
 -----------------------------------------------------------------
    Charge (ESU x 10^10)
                 0.0000
    Dipole Moment (Debye)
         X       0.0000      Y      -3.7913      Z       0.0000
       Tot       3.7913
    Quadrupole Moments (Debye-Ang)
        XX     -10.9316     XY      -0.0000     YY      -9.3702
        XZ      -0.0000     YZ       0.0000     ZZ     -12.5168

 Frequency:      -792.54                1320.28                1485.65
 Force Cnst:      0.4219                 3.0505                 1.7992
 Red. Mass:       1.1400                 2.9703                 1.3836
 IR Intens:        0.000                  0.073                  1.382
 Frequency:      1558.36                3309.36                3401.16
 Force Cnst:      1.7795                 6.8735                 7.3094
 Red. Mass:       1.2437                 1.0652                 1.0725
 IR Intens:       43.559                  2.960                  5.761

 STANDARD THERMODYNAMIC QUANTITIES AT   298.15 K  AND     1.00 ATM

   This Molecule has  1 Imaginary Frequencies
   Zero point vibrational energy:       15.832 kcal/mol

   Atom    1 Element O  Has Mass   15.99491
   Atom    2 Element O  Has Mass   15.99491
   Atom    3 Element H  Has Mass    1.00783
   Atom    4 Element H  Has Mass    1.00783
   Molecular Mass:    34.005480 amu
   Principal axes and moments of inertia in amu*Bohr^2:
                             1           2           3
    Eigenvalues --        5.98241    57.59179    63.57420
          X              -1.00000     0.00000     0.00000
          Y              -0.00000    -1.00000     0.00000
          Z              -0.00000     0.00000     1.00000
   Rotational Symmetry Number is   1
   The Molecule is an Asymmetric Top
   Translational Enthalpy:        0.889 kcal/mol
   Rotational Enthalpy:           0.889 kcal/mol
   Vibrational Enthalpy:         15.844 kcal/mol
   gas constant (RT):             0.592 kcal/mol
   Translational Entropy:        36.503  cal/mol.K
   Rotational Entropy:           17.733  cal/mol.K
   Vibrational Entropy:           0.047  cal/mol.K

   Total Enthalpy:               18.214 kcal/mol
   Total Entropy:                54.283  cal/mol.K

 Total job time:  9.16s(wall), 9.17s(cpu)
        *  Thank you very much for using Q-Chem.  Have a nice day.  *
