 Q-Chem 6.1, Q-Chem, Inc., Pleasanton, CA (2023)
 Q-Chem 6.1.1 for Intel X86 EM64T Linux

User input:
--------------------------------------------------------------
$molecule
0 4
F    0.0000000    0.0000000    0.0000000
$end

$rem
BASIS  =  6-31G
GUI  =  2
METHOD  =  B3LYP
$end

--------------------------------------------------------------

    6     -98.3217996644      8.10e-06  Convergence criterion met
 Total energy =   -98.32179966
 Total job time:  0.19s(wall), 0.17s(cpu)
        *  Thank you very much for using Q-Chem.  Have a nice day.  *
 Q-Chem 6.1, Q-Chem, Inc., Pleasanton, CA (2023)
 Q-Chem 6.1.1 for Intel X86 EM64T Linux

User input:
--------------------------------------------------------------

$molecule
read
$end

$rem
BASIS  =  6-31G
GUI  =  2
METHOD  =  PBE0
$end

--------------------------------------------------------------

    7     -98.2269125405      2.26e-06  Convergence criterion met
 Total energy =   -98.22691254
 Total job time:  0.18s(wall), 0.17s(cpu)
 Q-Chem 6.1, Q-Chem, Inc., Pleasanton, CA (2023)
 Q-Chem 6.1.1 for Intel X86 EM64T Linux

User input:
--------------------------------------------------------------

$molecule
read
$end

$rem
BASIS  =  6-31G
GUI  =  2
METHOD  =  PBE
$end

--------------------------------------------------------------

   23     -98.2849288150      7.37e-06  Convergence criterion met
 Total energy =   -98.28492882
 Q-Chem 6.1, Q-Chem, Inc., Pleasanton, CA (2023)
 Q-Chem 6.1.1 for Intel X86 EM64T Linux
   32     -98.3740832414      7.43e-06  Convergence criterion met
 Total energy =   -98.37408324
 Q-Chem 6.1, Q-Chem, Inc., Pleasanton, CA (2023)
 Q-Chem 6.1.1 for Intel X86 EM64T Linux
    7     -98.3831066519      3.02e-06  Convergence criterion met
 Total energy =   -98.38310665
 Q-Chem 6.1, Q-Chem, Inc., Pleasanton, CA (2023)
 Q-Chem 6.1.1 for Intel X86 EM64T Linux
    7     -98.2936506313      1.29e-06  Convergence criterion met
 Total energy =   -98.29365063
 Q-Chem 6.1, Q-Chem, Inc., Pleasanton, CA (2023)
 Q-Chem 6.1.1 for Intel X86 EM64T Linux
    7     -98.2862062803      3.02e-06  Convergence criterion met
 Total energy =   -98.28620628
 Q-Chem 6.1, Q-Chem, Inc., Pleasanton, CA (2023)
 Q-Chem 6.1.1 for Intel X86 EM64T Linux
    7     -98.2869569203      3.52e-06  Convergence criterion met
 Total energy =   -98.28695692
 Q-Chem 6.1, Q-Chem, Inc., Pleasanton, CA (2023)
 Q-Chem 6.1.1 for Intel X86 EM64T Linux
   13     -98.3522767964      5.74e-06  Convergence criterion met
 Total energy =   -98.35227680
        *  Thank you very much for using Q-Chem.  Have a nice day.  *
 Q-Chem 6.1, Q-Chem, Inc., Pleasanton, CA (2023)
 Q-Chem 6.1.1 for Intel X86 EM64T Linux

             Standard Nuclear Orientation (Angstroms)
    I     Atom           X                Y                Z
 ----------------------------------------------------------------
    1      F       0.0000000000     0.0000000000     0.0000000000
 ----------------------------------------------------------------

    7     -98.2712089078      3.20e-06  Convergence criterion met
 Total energy =   -98.27120891

                    Orbital Energies (a.u.)
 --------------------------------------------------------------

 Alpha MOs
 -- Occupied --
-24.9384  -1.4774  -0.7667  -0.7667  -0.6863   0.8351

 Beta MOs
 -- Occupied --
-24.8586  -1.2705  -0.5405

          Ground-State Mulliken Net Atomic Charges

     Atom                 Charge (a.u.)    Spin (a.u.)
  --------------------------------------------------------
      1 F                    -0.000000       3.000000
  --------------------------------------------------------
  Sum of atomic charges =    -0.000000

                    Cartesian Multipole Moments
 -----------------------------------------------------------------
    Charge (ESU x 10^10)
                -0.0000
    Dipole Moment (Debye)
         X       0.0000      Y      -0.0000      Z       0.0000
       Tot       0.0000
    Quadrupole Moments (Debye-Ang)
        XX      -4.2099     XY      -0.0000     YY      -6.7868
        XZ      -0.0000     YZ      -0.0000     ZZ      -4.2099

 STANDARD THERMODYNAMIC QUANTITIES AT   298.15 K  AND     1.00 ATM

   Translational Enthalpy:        0.889 kcal/mol
   Rotational Enthalpy:           0.000 kcal/mol
   Vibrational Enthalpy:          0.000 kcal/mol
   gas constant (RT):             0.592 kcal/mol
   Translational Entropy:        34.767  cal/mol.K
   Rotational Entropy:            0.000  cal/mol.K
   Vibrational Entropy:           0.000  cal/mol.K

   Total Enthalpy:                1.481 kcal/mol
   Total Entropy:                34.767  cal/mol.K

 Total job time:  0.60s(wall), 0.58s(cpu)
        *  Thank you very much for using Q-Chem.  Have a nice day.  *
