 Q-Chem 6.1, Q-Chem, Inc., Pleasanton, CA (2023)
 Q-Chem 6.1.1 for Intel X86 EM64T Linux

User input:
--------------------------------------------------------------
$molecule
0 1
O   -2.3918617    1.5842959    0.0807214
O   -1.4208449    1.5752991    0.9703595
H   -3.1999218    1.8489102    0.5905001
H   -0.9377166    2.4289738    0.8265444
$end

$rem
BASIS  =  6-31G
GUI  =  2
JOB_TYPE  =  Optimization
METHOD  =  HF
SCF_CONVERGENCE  =  8
SYMMETRY_IGNORE  =  1
$end

--------------------------------------------------------------

   12    -150.6917821807      3.82e-09  Convergence criterion met
 Total energy =  -150.69178218
   11    -150.7057782566      4.69e-09  Convergence criterion met
 Total energy =  -150.70577826
   11    -150.7080037129      5.45e-09  Convergence criterion met
 Total energy =  -150.70800371
   10    -150.7083418437      4.60e-09  Convergence criterion met
 Total energy =  -150.70834184
   11    -150.7090874404      6.61e-09  Convergence criterion met
 Total energy =  -150.70908744
   12    -150.7096119954      2.56e-09  Convergence criterion met
 Total energy =  -150.70961200
   11    -150.7098876986      3.21e-09  Convergence criterion met
 Total energy =  -150.70988770
   11    -150.7099644786      5.56e-09  Convergence criterion met
 Total energy =  -150.70996448
   10    -150.7099894519      5.46e-09  Convergence criterion met
 Total energy =  -150.70998945
   11    -150.7100013008      2.53e-09  Convergence criterion met
 Total energy =  -150.71000130
   10    -150.7100057519      2.42e-09  Convergence criterion met
 Total energy =  -150.71000575
    9    -150.7100070224      7.54e-09  Convergence criterion met
 Total energy =  -150.71000702
   10    -150.7100073022      2.44e-09  Convergence criterion met
 Total energy =  -150.71000730

                    Orbital Energies (a.u.)
 --------------------------------------------------------------

 Alpha MOs
 -- Occupied --
-20.6347 -20.6344  -1.4833  -1.2303  -0.7186  -0.6772  -0.6289  -0.5316
 -0.4643

          Ground-State Mulliken Net Atomic Charges

     Atom                 Charge (a.u.)
  ----------------------------------------
      1 O                    -0.445354
      2 O                    -0.445354
      3 H                     0.445354
      4 H                     0.445354
  ----------------------------------------
  Sum of atomic charges =     0.000000

                    Cartesian Multipole Moments
 -----------------------------------------------------------------
    Charge (ESU x 10^10)
                 0.0000
    Dipole Moment (Debye)
         X      -0.0069      Y       0.0237      Z       0.0078
       Tot       0.0259
    Quadrupole Moments (Debye-Ang)
        XX      -5.8796     XY       2.2380     YY     -11.9571
        XZ      -1.0589     YZ       0.2358     ZZ     -14.1902

 Final energy is -150.710007302208
	**  OPTIMIZATION CONVERGED  **

             Standard Nuclear Orientation (Angstroms)
    I     Atom           X                Y                Z
 ----------------------------------------------------------------
    1      O      -2.4856273535     1.8867156776     0.0823273452
    2      O      -1.4881180432     1.8271123214     1.1501280645
    3      H      -3.2509188373     1.5257054431     0.5238756904
    4      H      -0.7256807659     2.1979455579     0.7117942999
 ----------------------------------------------------------------

 Total job time:  2.31s(wall), 2.31s(cpu)
        *  Thank you very much for using Q-Chem.  Have a nice day.  *
