 Q-Chem 6.1, Q-Chem, Inc., Pleasanton, CA (2023)
 Q-Chem 6.1.1 for Intel X86 EM64T Linux

User input:
--------------------------------------------------------------
$molecule
0 1
O   -2.4112872    1.7623677    0.0000000
O   -1.4471091    2.6581954    0.0000000
H   -3.2460046    2.2955023    0.0000000
H   -0.6123899    2.1250702    0.0000000
$end

$rem
BASIS  =  6-31G
GUI  =  2
JOB_TYPE  =  Optimization
METHOD  =  wB97XD
SCF_CONVERGENCE  =  8
$end

--------------------------------------------------------------

   11    -151.4144666192      1.59e-09  Convergence criterion met
 Total energy =  -151.41446662
   10    -151.4349499417      3.99e-10  Convergence criterion met
 Total energy =  -151.43494994
    9    -151.4373182468      8.66e-09  Convergence criterion met
 Total energy =  -151.43731825
    9    -151.4375180967      1.29e-09  Convergence criterion met
 Total energy =  -151.43751810
    9    -151.4375346706      5.16e-10  Convergence criterion met
 Total energy =  -151.43753467
    7    -151.4375351492      2.00e-09  Convergence criterion met
 Total energy =  -151.43753515

             Orbital Energies (a.u.) and Symmetries
 --------------------------------------------------------------

 Alpha MOs, Restricted
 -- Occupied --
-19.327 -19.327  -1.213  -1.015  -0.593  -0.585  -0.479  -0.445
  1 A'    2 A'    3 A'    4 A'    5 A'    6 A'    1 A"    7 A'
 -0.345
  2 A"

 Beta MOs, Restricted
 -- Occupied --
-19.327 -19.327  -1.213  -1.015  -0.593  -0.585  -0.479  -0.445
  1 A'    2 A'    3 A'    4 A'    5 A'    6 A'    1 A"    7 A'
 -0.345
  2 A"

          Ground-State Mulliken Net Atomic Charges

     Atom                 Charge (a.u.)
  ----------------------------------------
      1 O                    -0.413661
      2 O                    -0.413661
      3 H                     0.413661
      4 H                     0.413661
  ----------------------------------------
  Sum of atomic charges =     0.000000

                    Cartesian Multipole Moments
 -----------------------------------------------------------------
    Charge (ESU x 10^10)
                 0.0000
    Dipole Moment (Debye)
         X      -0.0000      Y       0.0000      Z      -0.0000
       Tot       0.0000
    Quadrupole Moments (Debye-Ang)
        XX      -9.3066     XY       4.4721     YY     -10.0375
        XZ       0.0000     YZ      -0.0000     ZZ     -12.6598

 Final energy is -151.437535149160
	**  OPTIMIZATION CONVERGED  **

             Standard Nuclear Orientation (Angstroms)
    I     Atom           X                Y                Z
 ----------------------------------------------------------------
    1      O       0.7310185490    -0.1806717172     0.0000000000
    2      O      -0.7310209423     0.1806745626     0.0000000000
    3      H       1.1068991819     0.7211007422    -0.0000000000
    4      H      -1.1069015816    -0.7210978921    -0.0000000000
 ----------------------------------------------------------------

 Total job time:  7.33s(wall), 7.33s(cpu)
        *  Thank you very much for using Q-Chem.  Have a nice day.  *
