 Q-Chem 6.1, Q-Chem, Inc., Pleasanton, CA (2023)
 Q-Chem 6.1.1 for Intel X86 EM64T Linux

User input:
--------------------------------------------------------------
$molecule
0 1
O   -0.6381366    2.8321475   -0.9541590
O    0.5310458    2.4071658   -0.5219722
H    0.3422338    2.0036088    0.3636655
H   -0.9354093    2.1417287   -1.6005435
$end

$rem
BASIS  =  6-31G
GUI  =  2
JOB_TYPE  =  Frequency
METHOD  =  B3LYP
SCF_CONVERGENCE  =  8
$end

--------------------------------------------------------------

             Standard Nuclear Orientation (Angstroms)
    I     Atom           X                Y                Z
 ----------------------------------------------------------------
    1      O      -0.6487265837     0.1129132835    -0.0678211424
    2      O       0.6487265837    -0.1129132835    -0.0678211424
    3      H       1.0249422653     0.5717387965     0.5425686053
    4      H      -1.0249422653    -0.5717387965     0.5425686053
 ----------------------------------------------------------------

    9    -151.4656325197      3.40e-09  Convergence criterion met
 Total energy =  -151.46563252

             Orbital Energies (a.u.) and Symmetries
 --------------------------------------------------------------

 Alpha MOs, Restricted
 -- Occupied --
-19.196 -19.196  -1.201  -0.881  -0.578  -0.490  -0.431  -0.287
  1 B     1 A     2 A     2 B     3 A     3 B     4 A     5 A
 -0.268
  4 B

 Beta MOs, Restricted
 -- Occupied --
-19.196 -19.196  -1.201  -0.881  -0.578  -0.490  -0.431  -0.287
  1 B     1 A     2 A     2 B     3 A     3 B     4 A     5 A
 -0.268
  4 B

          Ground-State Mulliken Net Atomic Charges

     Atom                 Charge (a.u.)
  ----------------------------------------
      1 O                    -0.379231
      2 O                    -0.379231
      3 H                     0.379231
      4 H                     0.379231
  ----------------------------------------
  Sum of atomic charges =     0.000000

                    Cartesian Multipole Moments
 -----------------------------------------------------------------
    Charge (ESU x 10^10)
                -0.0000
    Dipole Moment (Debye)
         X       0.0000      Y      -0.0000      Z       2.5678
       Tot       2.5678
    Quadrupole Moments (Debye-Ang)
        XX     -10.5060     XY       3.0271     YY     -10.9782
        XZ      -0.0000     YZ      -0.0000     ZZ     -11.1042

 Frequency:       602.56                1360.39                1509.34
 Force Cnst:      0.2350                 7.0669                 1.5265
 Red. Mass:       1.0986                 6.4811                 1.1373
 IR Intens:      184.275                  4.031                 80.476
 Frequency:      1608.74                3381.62                3393.76
 Force Cnst:      1.8409                 7.1966                 7.2389
 Red. Mass:       1.2073                 1.0681                 1.0667
 IR Intens:        0.499                  3.359                  3.342

 STANDARD THERMODYNAMIC QUANTITIES AT   298.15 K  AND     1.00 ATM

   This Molecule has  0 Imaginary Frequencies
   Zero point vibrational energy:       16.950 kcal/mol

   Atom    1 Element O  Has Mass   15.99491
   Atom    2 Element O  Has Mass   15.99491
   Atom    3 Element H  Has Mass    1.00783
   Atom    4 Element H  Has Mass    1.00783
   Molecular Mass:    34.005480 amu
   Principal axes and moments of inertia in amu*Bohr^2:
                             1           2           3
    Eigenvalues --        6.00209    58.49113    59.44751
          X              -0.99685     0.07931     0.00000
          Y               0.07931     0.99685     0.00000
          Z               0.00000     0.00000     1.00000
   Rotational Symmetry Number is   2
   The Molecule is an Asymmetric Top
   Translational Enthalpy:        0.889 kcal/mol
   Rotational Enthalpy:           0.889 kcal/mol
   Vibrational Enthalpy:         17.059 kcal/mol
   gas constant (RT):             0.592 kcal/mol
   Translational Entropy:        36.503  cal/mol.K
   Rotational Entropy:           16.308  cal/mol.K
   Vibrational Entropy:           0.485  cal/mol.K

   Total Enthalpy:               19.429 kcal/mol
   Total Entropy:                53.296  cal/mol.K

 Total job time:  2.29s(wall), 2.27s(cpu)
        *  Thank you very much for using Q-Chem.  Have a nice day.  *
