 Q-Chem 6.1, Q-Chem, Inc., Pleasanton, CA (2023)
 Q-Chem 6.1.1 for Intel X86 EM64T Linux

User input:
--------------------------------------------------------------
$molecule
0 1
O   -0.7250848    2.5401885    3.5271955
O   -0.1005362    3.2319043    2.5966860
H    0.3788121    2.5534217    2.0556197
H   -0.1619443    2.6390832    4.3371121
$end

$rem
BASIS  =  6-31G
GUI  =  2
JOB_TYPE  =  Optimization
METHOD  =  RevPBE
SCF_CONVERGENCE  =  8
$end

--------------------------------------------------------------

   10    -151.4218819859      2.47e-09  Convergence criterion met
 Total energy =  -151.42188199
    9    -151.4450337149      1.89e-09  Convergence criterion met
 Total energy =  -151.44503371
    9    -151.4497630274      1.69e-09  Convergence criterion met
 Total energy =  -151.44976303
    9    -151.4504155358      2.65e-10  Convergence criterion met
 Total energy =  -151.45041554
    9    -151.4507939565      1.24e-09  Convergence criterion met
 Total energy =  -151.45079396
    9    -151.4512001165      4.32e-09  Convergence criterion met
 Total energy =  -151.45120012
    9    -151.4515845584      4.68e-09  Convergence criterion met
 Total energy =  -151.45158456
    9    -151.4519063993      4.52e-09  Convergence criterion met
 Total energy =  -151.45190640
    9    -151.4520487827      3.64e-09  Convergence criterion met
 Total energy =  -151.45204878
    9    -151.4520654505      1.06e-09  Convergence criterion met
 Total energy =  -151.45206545
    9    -151.4520740032      7.51e-10  Convergence criterion met
 Total energy =  -151.45207400
    9    -151.4520800203      5.92e-10  Convergence criterion met
 Total energy =  -151.45208002
    9    -151.4520824253      1.10e-09  Convergence criterion met
 Total energy =  -151.45208243
    7    -151.4520826463      7.11e-09  Convergence criterion met
 Total energy =  -151.45208265

                    Orbital Energies (a.u.)
 --------------------------------------------------------------

 Alpha MOs
 -- Occupied --
-18.8341 -18.8341  -0.9943  -0.8328  -0.4435  -0.4278  -0.3120  -0.3080
 -0.1968

          Ground-State Mulliken Net Atomic Charges

     Atom                 Charge (a.u.)
  ----------------------------------------
      1 O                    -0.389222
      2 O                    -0.389222
      3 H                     0.389222
      4 H                     0.389222
  ----------------------------------------
  Sum of atomic charges =     0.000000

                    Cartesian Multipole Moments
 -----------------------------------------------------------------
    Charge (ESU x 10^10)
                -0.0000
    Dipole Moment (Debye)
         X      -0.0000      Y       0.0000      Z       0.0343
       Tot       0.0343
    Quadrupole Moments (Debye-Ang)
        XX      -9.1118     XY      -4.1514     YY     -10.3631
        XZ       0.0001     YZ      -0.0000     ZZ     -12.7399

 Final energy is -151.452082646338
	**  OPTIMIZATION CONVERGED  **

             Standard Nuclear Orientation (Angstroms)
    I     Atom           X                Y                Z
 ----------------------------------------------------------------
    1      O      -0.7508323305    -0.2174657025     0.2336016906
    2      O       0.7508341305     0.2174773737     0.2335894219
    3      H       1.1358416771    -0.6997853656     0.2419112777
    4      H      -1.1358398995     0.6997973503     0.2418833897
 ----------------------------------------------------------------

 Total job time:  5.41s(wall), 5.39s(cpu)
        *  Thank you very much for using Q-Chem.  Have a nice day.  *
