 Q-Chem 6.1, Q-Chem, Inc., Pleasanton, CA (2023)
 Q-Chem 6.1.1 for Intel X86 EM64T Linux

User input:
--------------------------------------------------------------
$molecule
0 1
O   -3.3766163    1.6585271    0.0000000
O   -2.4450999    2.5882674    0.0000000
H   -4.2298630    2.1614695    0.0000000
H   -1.5918432    2.0853458    0.0000000
$end

$rem
BASIS  =  6-31G
GUI  =  2
JOB_TYPE  =  Frequency
METHOD  =  CAMB3LYP
SCF_CONVERGENCE  =  8
$end

--------------------------------------------------------------

             Standard Nuclear Orientation (Angstroms)
    I     Atom           X                Y                Z
 ----------------------------------------------------------------
    1      O       0.6394577839    -0.1553392793     0.0000000000
    2      O      -0.6394556341     0.1553378814    -0.0000000000
    3      H       1.1073654599     0.7176116905    -0.0000000000
    4      H      -1.1073826587    -0.7176005078     0.0000000000
 ----------------------------------------------------------------

   11    -151.4132511979      2.64e-10  Convergence criterion met
 Total energy =  -151.41325120

             Orbital Energies (a.u.) and Symmetries
 --------------------------------------------------------------

 Alpha MOs, Restricted
 -- Occupied --
-19.260 -19.260  -1.273  -0.955  -0.613  -0.577  -0.497  -0.390
  1 A'    2 A'    3 A'    4 A'    5 A'    6 A'    1 A"    7 A'
 -0.289
  2 A"

 Beta MOs, Restricted
 -- Occupied --
-19.260 -19.260  -1.273  -0.955  -0.613  -0.577  -0.497  -0.390
  1 A'    2 A'    3 A'    4 A'    5 A'    6 A'    1 A"    7 A'
 -0.289
  2 A"

          Ground-State Mulliken Net Atomic Charges

     Atom                 Charge (a.u.)
  ----------------------------------------
      1 O                    -0.403559
      2 O                    -0.403563
      3 H                     0.403561
      4 H                     0.403561
  ----------------------------------------
  Sum of atomic charges =     0.000000

                    Cartesian Multipole Moments
 -----------------------------------------------------------------
    Charge (ESU x 10^10)
                 0.0000
    Dipole Moment (Debye)
         X      -0.0000      Y       0.0000      Z      -0.0000
       Tot       0.0000
    Quadrupole Moments (Debye-Ang)
        XX      -9.3910     XY       4.5158     YY     -10.0375
        XZ      -0.0000     YZ       0.0000     ZZ     -12.4932

 Frequency:       266.36                1384.34                1451.77
 Force Cnst:      0.0446                 1.2049                16.2199
 Red. Mass:       1.0671                 1.0671                13.0618
 IR Intens:      468.558                165.992                  0.000
 Frequency:      1693.92                3465.35                3502.19
 Force Cnst:      1.9948                 7.5674                 7.7114
 Red. Mass:       1.1799                 1.0695                 1.0671
 IR Intens:        0.000                  0.000                 48.719

 STANDARD THERMODYNAMIC QUANTITIES AT   298.15 K  AND     1.00 ATM

   This Molecule has  0 Imaginary Frequencies
   Zero point vibrational energy:       16.817 kcal/mol

   Atom    1 Element O  Has Mass   15.99491
   Atom    2 Element O  Has Mass   15.99491
   Atom    3 Element H  Has Mass    1.00783
   Atom    4 Element H  Has Mass    1.00783
   Molecular Mass:    34.005480 amu
   Principal axes and moments of inertia in amu*Bohr^2:
                             1           2           3
    Eigenvalues --        5.82623    56.17620    62.00243
          X              -0.99365     0.11248     0.00000
          Y               0.11248     0.99365     0.00000
          Z              -0.00000    -0.00000     1.00000
   Rotational Symmetry Number is   1
   The Molecule is an Asymmetric Top
   Translational Enthalpy:        0.889 kcal/mol
   Rotational Enthalpy:           0.889 kcal/mol
   Vibrational Enthalpy:         17.119 kcal/mol
   gas constant (RT):             0.592 kcal/mol
   Translational Entropy:        36.503  cal/mol.K
   Rotational Entropy:           17.658  cal/mol.K
   Vibrational Entropy:           1.658  cal/mol.K

   Total Enthalpy:               19.489 kcal/mol
   Total Entropy:                55.819  cal/mol.K

 Total job time:  4.40s(wall), 4.40s(cpu)
        *  Thank you very much for using Q-Chem.  Have a nice day.  *
