 Q-Chem 6.1, Q-Chem, Inc., Pleasanton, CA (2023)
 Q-Chem 6.1.1 for Intel X86 EM64T Linux

User input:
--------------------------------------------------------------
$molecule
0 1
O   -1.3108384    0.7595260    0.0000000
O   -0.7293600    1.9402229    0.0000000
H   -2.2807721    0.9600606    0.0000000
H    0.2405758    1.7397045    0.0000000
$end

$rem
BASIS  =  6-31G
GUI  =  2
JOB_TYPE  =  Frequency
METHOD  =  RevPBE
SCF_CONVERGENCE  =  8
$end

--------------------------------------------------------------

             Standard Nuclear Orientation (Angstroms)
    I     Atom           X                Y                Z
 ----------------------------------------------------------------
    1      O       0.6394617898    -0.1553393854    -0.0000000000
    2      O      -0.6394602588     0.1553384105     0.0000000000
    3      H       1.1073796766     0.7176086998     0.0000000000
    4      H      -1.1073919248    -0.7176009006    -0.0000000000
 ----------------------------------------------------------------

   10    -151.4182965582      3.59e-09  Convergence criterion met
 Total energy =  -151.41829656

             Orbital Energies (a.u.) and Symmetries
 --------------------------------------------------------------

 Alpha MOs, Restricted
 -- Occupied --
-18.814 -18.814  -1.099  -0.797  -0.498  -0.439  -0.353  -0.266
  1 A'    2 A'    3 A'    4 A'    5 A'    6 A'    1 A"    7 A'
 -0.154
  2 A"

 Beta MOs, Restricted
 -- Occupied --
-18.814 -18.814  -1.099  -0.797  -0.498  -0.439  -0.353  -0.266
  1 A'    2 A'    3 A'    4 A'    5 A'    6 A'    1 A"    7 A'
 -0.154
  2 A"

          Ground-State Mulliken Net Atomic Charges

     Atom                 Charge (a.u.)
  ----------------------------------------
      1 O                    -0.392553
      2 O                    -0.392556
      3 H                     0.392554
      4 H                     0.392554
  ----------------------------------------
  Sum of atomic charges =     0.000000

                    Cartesian Multipole Moments
 -----------------------------------------------------------------
    Charge (ESU x 10^10)
                -0.0000
    Dipole Moment (Debye)
         X      -0.0000      Y       0.0000      Z      -0.0000
       Tot       0.0000
    Quadrupole Moments (Debye-Ang)
        XX      -9.4362     XY       4.3258     YY     -10.0756
        XZ       0.0000     YZ       0.0000     ZZ     -12.5096

 Frequency:      -406.34                1323.92                1437.68
 Force Cnst:      0.1038                 1.1020                13.0081
 Red. Mass:       1.0671                 1.0671                10.6817
 IR Intens:      432.444                143.303                  0.000
 Frequency:      1653.38                3432.22                3473.73
 Force Cnst:      1.9386                 7.4265                 7.5866
 Red. Mass:       1.2036                 1.0700                 1.0671
 IR Intens:        0.000                  0.000                 17.947

 STANDARD THERMODYNAMIC QUANTITIES AT   298.15 K  AND     1.00 ATM

   This Molecule has  1 Imaginary Frequencies
   Zero point vibrational energy:       16.184 kcal/mol

   Atom    1 Element O  Has Mass   15.99491
   Atom    2 Element O  Has Mass   15.99491
   Atom    3 Element H  Has Mass    1.00783
   Atom    4 Element H  Has Mass    1.00783
   Molecular Mass:    34.005480 amu
   Principal axes and moments of inertia in amu*Bohr^2:
                             1           2           3
    Eigenvalues --        5.82623    56.17702    62.00325
          X               0.99365    -0.11248     0.00000
          Y              -0.11248    -0.99365    -0.00000
          Z              -0.00000    -0.00000     1.00000
   Rotational Symmetry Number is   1
   The Molecule is an Asymmetric Top
   Translational Enthalpy:        0.889 kcal/mol
   Rotational Enthalpy:           0.889 kcal/mol
   Vibrational Enthalpy:         16.196 kcal/mol
   gas constant (RT):             0.592 kcal/mol
   Translational Entropy:        36.503  cal/mol.K
   Rotational Entropy:           17.658  cal/mol.K
   Vibrational Entropy:           0.046  cal/mol.K

   Total Enthalpy:               18.566 kcal/mol
   Total Entropy:                54.206  cal/mol.K

 Total job time:  2.19s(wall), 2.17s(cpu)
        *  Thank you very much for using Q-Chem.  Have a nice day.  *
