 Q-Chem 6.1, Q-Chem, Inc., Pleasanton, CA (2023)
 Q-Chem 6.1.1 for Intel X86 EM64T Linux

User input:
--------------------------------------------------------------
$molecule
0 1
O   -2.1187042    1.4365583   -0.0000000
O   -1.0522470    2.2078100    0.0000000
H   -2.8820032    2.0677115    0.0000000
H   -0.2889742    1.5766258    0.0000000
$end

$rem
BASIS  =  6-31G
GUI  =  2
JOB_TYPE  =  Optimization
METHOD  =  BLYP
SCF_CONVERGENCE  =  8
$end

--------------------------------------------------------------

   10    -151.4394724995      9.72e-10  Convergence criterion met
 Total energy =  -151.43947250
    9    -151.4699084371      1.15e-09  Convergence criterion met
 Total energy =  -151.46990844
    9    -151.4746197277      4.35e-10  Convergence criterion met
 Total energy =  -151.47461973
    8    -151.4750534403      3.14e-09  Convergence criterion met
 Total energy =  -151.47505344
    8    -151.4751211539      2.67e-09  Convergence criterion met
 Total energy =  -151.47512115
    8    -151.4751216800      3.12e-10  Convergence criterion met
 Total energy =  -151.47512168

             Orbital Energies (a.u.) and Symmetries
 --------------------------------------------------------------

 Alpha MOs, Restricted
 -- Occupied --
-18.848 -18.848  -0.980  -0.823  -0.435  -0.421  -0.307  -0.303
  1 A'    2 A'    3 A'    4 A'    5 A'    6 A'    7 A'    1 A"
 -0.195
  2 A"

 Beta MOs, Restricted
 -- Occupied --
-18.848 -18.848  -0.980  -0.823  -0.435  -0.421  -0.307  -0.303
  1 A'    2 A'    3 A'    4 A'    5 A'    6 A'    7 A'    1 A"
 -0.195
  2 A"

          Ground-State Mulliken Net Atomic Charges

     Atom                 Charge (a.u.)
  ----------------------------------------
      1 O                    -0.378554
      2 O                    -0.378554
      3 H                     0.378554
      4 H                     0.378554
  ----------------------------------------
  Sum of atomic charges =     0.000000

                    Cartesian Multipole Moments
 -----------------------------------------------------------------
    Charge (ESU x 10^10)
                 0.0000
    Dipole Moment (Debye)
         X       0.0000      Y      -0.0000      Z      -0.0000
       Tot       0.0000
    Quadrupole Moments (Debye-Ang)
        XX      -9.3497     XY       4.1620     YY     -10.1287
        XZ       0.0000     YZ      -0.0000     ZZ     -12.7201

 Final energy is -151.475121679999
	**  OPTIMIZATION CONVERGED  **

             Standard Nuclear Orientation (Angstroms)
    I     Atom           X                Y                Z
 ----------------------------------------------------------------
    1      O       0.7608066575    -0.1964635042     0.0000000000
    2      O      -0.7607926875     0.1964562044     0.0000000000
    3      H       1.1189518556     0.7342001380    -0.0000000000
    4      H      -1.1189378431    -0.7342074526    -0.0000000000
 ----------------------------------------------------------------

 Total job time:  2.40s(wall), 2.40s(cpu)
        *  Thank you very much for using Q-Chem.  Have a nice day.  *
