 Q-Chem 6.1, Q-Chem, Inc., Pleasanton, CA (2023)
 Q-Chem 6.1.1 for Intel X86 EM64T Linux

User input:
--------------------------------------------------------------
$molecule
0 1
O   -2.1187042    1.4365583   -0.0000000
O   -1.0522470    2.2078100    0.0000000
H   -2.8820032    2.0677115    0.0000000
H   -0.2889742    1.5766258    0.0000000
$end

$rem
BASIS  =  6-31G
GUI  =  2
JOB_TYPE  =  Frequency
METHOD  =  BLYP
SCF_CONVERGENCE  =  8
$end

--------------------------------------------------------------

             Standard Nuclear Orientation (Angstroms)
    I     Atom           X                Y                Z
 ----------------------------------------------------------------
    1      O       0.6394587738    -0.1553371564     0.0000000000
    2      O      -0.6394627713     0.1553392441    -0.0000000000
    3      H       1.1073910567     0.7175998997    -0.0000000000
    4      H      -1.1073590767    -0.7176166017     0.0000000000
 ----------------------------------------------------------------

   10    -151.4394725001      9.72e-10  Convergence criterion met
 Total energy =  -151.43947250

             Orbital Energies (a.u.) and Symmetries
 --------------------------------------------------------------

 Alpha MOs, Restricted
 -- Occupied --
-18.828 -18.828  -1.086  -0.787  -0.491  -0.433  -0.349  -0.261
  1 A'    2 A'    3 A'    4 A'    5 A'    6 A'    1 A"    7 A'
 -0.152
  2 A"

 Beta MOs, Restricted
 -- Occupied --
-18.828 -18.828  -1.086  -0.787  -0.491  -0.433  -0.349  -0.261
  1 A'    2 A'    3 A'    4 A'    5 A'    6 A'    1 A"    7 A'
 -0.152
  2 A"

          Ground-State Mulliken Net Atomic Charges

     Atom                 Charge (a.u.)
  ----------------------------------------
      1 O                    -0.381246
      2 O                    -0.381239
      3 H                     0.381242
      4 H                     0.381243
  ----------------------------------------
  Sum of atomic charges =     0.000000

                    Cartesian Multipole Moments
 -----------------------------------------------------------------
    Charge (ESU x 10^10)
                -0.0000
    Dipole Moment (Debye)
         X       0.0000      Y      -0.0000      Z       0.0000
       Tot       0.0001
    Quadrupole Moments (Debye-Ang)
        XX      -9.4527     XY       4.2965     YY     -10.0845
        XZ       0.0000     YZ      -0.0000     ZZ     -12.4657

 Frequency:      -427.37                1311.20                1438.55
 Force Cnst:      0.1148                 1.0809                12.0829
 Red. Mass:       1.0671                 1.0671                 9.9099
 IR Intens:      427.410                142.433                  0.000
 Frequency:      1642.53                3424.48                3466.78
 Force Cnst:      1.9306                 7.3914                 7.5562
 Red. Mass:       1.2146                 1.0698                 1.0671
 IR Intens:        0.000                  0.000                 15.323

 STANDARD THERMODYNAMIC QUANTITIES AT   298.15 K  AND     1.00 ATM

   This Molecule has  1 Imaginary Frequencies
   Zero point vibrational energy:       16.131 kcal/mol

   Atom    1 Element O  Has Mass   15.99491
   Atom    2 Element O  Has Mass   15.99491
   Atom    3 Element H  Has Mass    1.00783
   Atom    4 Element H  Has Mass    1.00783
   Molecular Mass:    34.005480 amu
   Principal axes and moments of inertia in amu*Bohr^2:
                             1           2           3
    Eigenvalues --        5.82624    56.17681    62.00305
          X              -0.99365     0.11248    -0.00000
          Y               0.11248     0.99365     0.00000
          Z              -0.00000    -0.00000     1.00000
   Rotational Symmetry Number is   1
   The Molecule is an Asymmetric Top
   Translational Enthalpy:        0.889 kcal/mol
   Rotational Enthalpy:           0.889 kcal/mol
   Vibrational Enthalpy:         16.143 kcal/mol
   gas constant (RT):             0.592 kcal/mol
   Translational Entropy:        36.503  cal/mol.K
   Rotational Entropy:           17.658  cal/mol.K
   Vibrational Entropy:           0.048  cal/mol.K

   Total Enthalpy:               18.513 kcal/mol
   Total Entropy:                54.208  cal/mol.K

 Total job time:  2.07s(wall), 2.07s(cpu)
        *  Thank you very much for using Q-Chem.  Have a nice day.  *
