 Q-Chem 6.1, Q-Chem, Inc., Pleasanton, CA (2023)
 Q-Chem 6.1.1 for Intel X86 EM64T Linux

User input:
--------------------------------------------------------------
$molecule
0 1
O   -1.1212211    1.1151419    0.0000000
O    0.1610215    0.7646275    0.0000000
H   -1.1920920    2.1089392    0.0000000
H    0.7275760    1.5841791    0.0000000
$end

$rem
BASIS  =  6-31G
GUI  =  2
JOB_TYPE  =  Optimization
METHOD  =  PBE0
SCF_CONVERGENCE  =  8
$end

--------------------------------------------------------------

    9    -151.2899353190      3.28e-09  Convergence criterion met
 Total energy =  -151.28993532
    9    -151.3066815981      6.90e-09  Convergence criterion met
 Total energy =  -151.30668160
    9    -151.3091808939      2.18e-09  Convergence criterion met
 Total energy =  -151.30918089
    9    -151.3093213161      1.75e-09  Convergence criterion met
 Total energy =  -151.30932132
    8    -151.3093285879      5.07e-09  Convergence criterion met
 Total energy =  -151.30932859
    6    -151.3093290030      5.42e-09  Convergence criterion met
 Total energy =  -151.30932900

             Orbital Energies (a.u.) and Symmetries
 --------------------------------------------------------------

 Alpha MOs, Restricted
 -- Occupied --
-19.286 -19.286  -1.142  -0.948  -0.580  -0.426  -0.405  -0.399
  1 A'    2 A'    3 A'    4 A'    5 A'    6 A'    1 A"    7 A'
 -0.275
  2 A"

 Beta MOs, Restricted
 -- Occupied --
-19.286 -19.286  -1.142  -0.948  -0.580  -0.426  -0.405  -0.399
  1 A'    2 A'    3 A'    4 A'    5 A'    6 A'    1 A"    7 A'
 -0.275
  2 A"

          Ground-State Mulliken Net Atomic Charges

     Atom                 Charge (a.u.)
  ----------------------------------------
      1 O                    -0.381175
      2 O                    -0.381175
      3 H                     0.381175
      4 H                     0.381175
  ----------------------------------------
  Sum of atomic charges =     0.000000

                    Cartesian Multipole Moments
 -----------------------------------------------------------------
    Charge (ESU x 10^10)
                 0.0000
    Dipole Moment (Debye)
         X       0.0000      Y      -3.9114      Z       0.0000
       Tot       3.9114
    Quadrupole Moments (Debye-Ang)
        XX     -10.5999     XY      -0.0000     YY      -9.3497
        XZ      -0.0000     YZ      -0.0000     ZZ     -12.7074

 Final energy is -151.309329003003
	**  OPTIMIZATION CONVERGED  **

             Standard Nuclear Orientation (Angstroms)
    I     Atom           X                Y                Z
 ----------------------------------------------------------------
    1      O       0.7543830628     0.1075330104     0.0000000000
    2      O      -0.7543797742     0.1075280970    -0.0000000000
    3      H       1.0250257135    -0.8385903805    -0.0000000000
    4      H      -1.0250162870    -0.8385970609     0.0000000000
 ----------------------------------------------------------------

 Total job time:  2.33s(wall), 2.33s(cpu)
        *  Thank you very much for using Q-Chem.  Have a nice day.  *
